REMARK  Name = native_check/native_MUP.pdb
REMARK  11 active torsions:
REMARK  status: ('A' for Active; 'I' for Inactive)
REMARK    1  A    between atoms: C1_1  and  C2_2
REMARK    2  A    between atoms: C1_1  and  P_15
REMARK    3  A    between atoms: C2_2  and  C3_3
REMARK    4  A    between atoms: C3_3  and  C4_4
REMARK    5  A    between atoms: C4_4  and  C5_5
REMARK    6  A    between atoms: C5_5  and  C6_6
REMARK    7  A    between atoms: C6_6  and  C7_7
REMARK    8  A    between atoms: C7_7  and  C8_8
REMARK    9  A    between atoms: C8_8  and  C9_9
REMARK   10  A    between atoms: C9_9  and  C10_10
REMARK   11  A    between atoms: O2P_14  and  P_15
REMARK                            x       y       z     vdW  Elec       q    Type
REMARK                         _______ _______ _______ _____ _____    ______ ____
ROOT
ATOM      1  C4  MUP B 901       7.871  23.854  54.059  1.00  0.00    +0.000 C 
ENDROOT
BRANCH   1   2
ATOM      2  C3  MUP B 901       7.122  25.122  54.313  1.00  0.00    +0.000 C 
BRANCH   2   3
ATOM      3  C2  MUP B 901       7.227  26.063  53.139  1.00  0.00    +0.000 C 
BRANCH   3   4
ATOM      4  C1  MUP B 901       8.674  26.290  52.682  1.00  0.00    +0.000 C 
BRANCH   4   6
ATOM      5  O1P MUP B 901      10.263  27.945  51.352  1.00  0.00    +0.000 OA
ATOM      6  P   MUP B 901       8.881  27.163  51.294  1.00  0.00    +0.000 P 
BRANCH   6   8
ATOM      7  CM  MUP B 901       9.745  26.333  48.783  1.00  0.00    +0.000 C 
ATOM      8  O2P MUP B 901       9.170  26.039  50.092  1.00  0.00    +0.000 OA
ENDBRANCH   6   8
ENDBRANCH   4   6
ENDBRANCH   3   4
ENDBRANCH   2   3
ENDBRANCH   1   2
BRANCH   1   9
ATOM      9  C5  MUP B 901       8.120  23.142  55.352  1.00  0.00    +0.000 C 
BRANCH   9  10
ATOM     10  C6  MUP B 901       8.476  21.701  55.086  1.00  0.00    +0.000 C 
BRANCH  10  11
ATOM     11  C7  MUP B 901       9.930  21.402  55.341  1.00  0.00    +0.000 C 
BRANCH  11  12
ATOM     12  C8  MUP B 901      10.080  20.372  56.464  1.00  0.00    +0.000 C 
BRANCH  12  13
ATOM     13  C9  MUP B 901      10.152  18.950  55.930  1.00  0.00    +0.000 C 
BRANCH  13  14
ATOM     14  C10 MUP B 901       8.760  18.341  55.793  1.00  0.00    +0.000 C 
ATOM     15  C11 MUP B 901       8.420  17.940  54.363  1.00  0.00    +0.000 C 
ENDBRANCH  13  14
ENDBRANCH  12  13
ENDBRANCH  11  12
ENDBRANCH  10  11
ENDBRANCH   9  10
ENDBRANCH   1   9
TORSDOF 11
